FoamFile
{
	version		2.0;
	format		ascii;
	class		vectorField;
	location	constant;
	object		positions;
}
// * * * * * * * * * * * * * * * * * * * * * * * * * * * * * * * * * * * * * //
(( -10.0 2.91632 13.56632)
( -10.0 2.91752 13.56632)
( -10.0 2.91871 13.56632)
( -10.0 2.9199 13.56632)
( -10.0 2.9211 13.56632)
( -10.0 2.92229 13.56632)
( -10.0 2.92348 13.56632)
( -10.0 2.92468 13.56632)
( -10.0 2.92587 13.56632)
( -10.0 2.92706 13.56632)
( -10.0 2.92826 13.56632)
( -10.0 2.92945 13.56632)
( -10.0 2.93064 13.56632)
( -10.0 2.93184 13.56632)
( -10.0 2.93303 13.56632)
( -10.0 2.93422 13.56632)
( -10.0 2.93542 13.56632)
( -10.0 2.93661 13.56632)
( -10.0 2.93781 13.56632)
( -10.0 2.939 13.56632)
( -10.0 2.94019 13.56632)
( -10.0 2.94139 13.56632)
( -10.0 2.94258 13.56632)
( -10.0 2.94377 13.56632)
( -10.0 2.94497 13.56632)
( -10.0 2.94616 13.56632)
( -10.0 2.94735 13.56632)
( -10.0 2.94855 13.56632)
( -10.0 2.94974 13.56632)
( -10.0 2.95093 13.56632)
( -10.0 2.95213 13.56632)
( -10.0 2.95332 13.56632)
( -10.0 2.95452 13.56632)
( -10.0 2.95571 13.56632)
( -10.0 2.9569 13.56632)
( -10.0 2.9581 13.56632)
( -10.0 2.95929 13.56632)
( -10.0 2.96048 13.56632)
( -10.0 2.96168 13.56632)
( -10.0 2.96287 13.56632)
( -10.0 2.96406 13.56632)
( -10.0 2.96526 13.56632)
( -10.0 2.96645 13.56632)
( -10.0 2.96764 13.56632)
( -10.0 2.96884 13.56632)
( -10.0 2.97003 13.56632)
( -10.0 2.97123 13.56632)
( -10.0 2.97242 13.56632)
( -10.0 2.97361 13.56632)
( -10.0 2.97481 13.56632)
( -10.0 2.976 13.56632)
( -10.0 2.97719 13.56632)
( -10.0 2.97839 13.56632)
( -10.0 2.97958 13.56632)
( -10.0 2.98077 13.56632)
( -10.0 2.98197 13.56632)
( -10.0 2.98316 13.56632)
( -10.0 2.98435 13.56632)
( -10.0 2.98555 13.56632)
( -10.0 2.98674 13.56632)
( -10.0 2.98794 13.56632)
( -10.0 2.98913 13.56632)
( -10.0 2.99032 13.56632)
( -10.0 2.99152 13.56632)
( -10.0 2.99271 13.56632)
( -10.0 2.9939 13.56632)
( -10.0 2.9951 13.56632)
( -10.0 2.99629 13.56632)
( -10.0 2.99748 13.56632)
( -10.0 2.99868 13.56632)
( -10.0 2.99987 13.56632)
( -10.0 3.00106 13.56632)
( -10.0 3.00226 13.56632)
( -10.0 3.00345 13.56632)
( -10.0 3.00464 13.56632)
( -10.0 3.00584 13.56632)
( -10.0 3.00703 13.56632)
( -10.0 3.00823 13.56632)
( -10.0 3.00942 13.56632)
( -10.0 3.01061 13.56632)
( -10.0 3.01181 13.56632)
( -10.0 3.013 13.56632)
( -10.0 3.01419 13.56632)
( -10.0 3.01539 13.56632)
( -10.0 3.01658 13.56632)
( -10.0 3.01777 13.56632)
( -10.0 3.01897 13.56632)
( -10.0 3.02016 13.56632)
( -10.0 3.02135 13.56632)
( -10.0 3.02255 13.56632)
( -10.0 3.02374 13.56632)
( -10.0 3.02494 13.56632)
( -10.0 3.02613 13.56632)
( -10.0 3.02732 13.56632)
( -10.0 3.02852 13.56632)
( -10.0 3.02971 13.56632)
( -10.0 3.0309 13.56632)
( -10.0 3.0321 13.56632)
( -10.0 3.03329 13.56632)
( -10.0 3.03448 13.56632)
( -10.0 3.03568 13.56632)
( -10.0 3.03687 13.56632)
( -10.0 3.03806 13.56632)
( -10.0 3.03926 13.56632)
( -10.0 3.04045 13.56632)
( -10.0 3.04165 13.56632)
( -10.0 3.04284 13.56632)
( -10.0 3.04403 13.56632)
( -10.0 3.04523 13.56632)
( -10.0 3.04642 13.56632)
( -10.0 3.04761 13.56632)
( -10.0 3.04881 13.56632)
( -10.0 3.05 13.56632)
( -10.0 3.05119 13.56632)
( -10.0 3.05239 13.56632)
( -10.0 3.05358 13.56632)
( -10.0 3.05477 13.56632)
( -10.0 3.05597 13.56632)
( -10.0 3.05716 13.56632)
( -10.0 3.05835 13.56632)
( -10.0 3.05955 13.56632)
( -10.0 3.06074 13.56632)
( -10.0 3.06194 13.56632)
( -10.0 3.06313 13.56632)
( -10.0 3.06432 13.56632)
( -10.0 3.06552 13.56632)
( -10.0 3.06671 13.56632)
( -10.0 3.0679 13.56632)
( -10.0 3.0691 13.56632)
( -10.0 3.07029 13.56632)
( -10.0 3.07148 13.56632)
( -10.0 3.07268 13.56632)
( -10.0 3.07387 13.56632)
( -10.0 3.07506 13.56632)
( -10.0 3.07626 13.56632)
( -10.0 3.07745 13.56632)
( -10.0 3.07865 13.56632)
( -10.0 3.07984 13.56632)
( -10.0 3.08103 13.56632)
( -10.0 3.08223 13.56632)
( -10.0 3.08342 13.56632)
( -10.0 3.08461 13.56632)
( -10.0 3.08581 13.56632)
( -10.0 3.087 13.56632)
( -10.0 3.08819 13.56632)
( -10.0 3.08939 13.56632)
( -10.0 3.09058 13.56632)
( -10.0 3.09177 13.56632)
( -10.0 3.09297 13.56632)
( -10.0 3.09416 13.56632)
( -10.0 3.09536 13.56632)
( -10.0 3.09655 13.56632)
( -10.0 3.09774 13.56632)
( -10.0 3.09894 13.56632)
( -10.0 3.10013 13.56632)
( -10.0 3.10132 13.56632)
( -10.0 3.10252 13.56632)
( -10.0 3.10371 13.56632)
( -10.0 3.1049 13.56632)
( -10.0 3.1061 13.56632)
( -10.0 3.10729 13.56632)
( -10.0 3.10848 13.56632)
( -10.0 3.10968 13.56632)
( -10.0 3.11087 13.56632)
( -10.0 3.11206 13.56632)
( -10.0 3.11326 13.56632)
( -10.0 3.11445 13.56632)
( -10.0 3.11565 13.56632)
( -10.0 3.11684 13.56632)
( -10.0 3.11803 13.56632)
( -10.0 3.11923 13.56632)
( -10.0 3.12042 13.56632)
( -10.0 3.12161 13.56632)
( -10.0 3.12281 13.56632)
( -10.0 3.124 13.56632)
( -10.0 3.12519 13.56632)
( -10.0 3.12639 13.56632)
( -10.0 3.12758 13.56632)
( -10.0 3.12877 13.56632)
( -10.0 3.12997 13.56632)
( -10.0 3.13116 13.56632)
( -10.0 3.13236 13.56632)
( -10.0 3.13355 13.56632)
( -10.0 3.13474 13.56632)
( -10.0 3.13594 13.56632)
( -10.0 3.13713 13.56632)
( -10.0 3.13832 13.56632)
( -10.0 3.13952 13.56632)
( -10.0 3.14071 13.56632)
( -10.0 3.1419 13.56632)
( -10.0 3.1431 13.56632)
( -10.0 3.14429 13.56632)
( -10.0 3.14548 13.56632)
( -10.0 3.14668 13.56632)
( -10.0 3.14787 13.56632)
( -10.0 3.14907 13.56632)
( -10.0 3.15026 13.56632)
( -10.0 3.15145 13.56632)
( -10.0 3.15265 13.56632)
( -10.0 3.15384 13.56632)
( -10.0 3.15503 13.56632)
( -10.0 3.15623 13.56632)
( -10.0 3.15742 13.56632)
( -10.0 3.15861 13.56632)
( -10.0 3.15981 13.56632)
( -10.0 3.161 13.56632)
( -10.0 3.16219 13.56632)
( -10.0 3.16339 13.56632)
( -10.0 3.16458 13.56632)
( -10.0 3.16578 13.56632)
( -10.0 3.16697 13.56632)
( -10.0 3.16816 13.56632)
( -10.0 3.16936 13.56632)
( -10.0 3.17055 13.56632)
( -10.0 3.17174 13.56632)
( -10.0 3.17294 13.56632)
( -10.0 3.17413 13.56632)
( -10.0 3.17532 13.56632)
( -10.0 3.17652 13.56632)
( -10.0 3.17771 13.56632)
( -10.0 3.1789 13.56632)
( -10.0 3.1801 13.56632)
( -10.0 3.18129 13.56632)
( -10.0 3.18248 13.56632)
( -10.0 3.18368 13.56632)
( -10.0 2.91632 13.56752)
( -10.0 2.91752 13.56752)
( -10.0 2.91871 13.56752)
( -10.0 2.9199 13.56752)
( -10.0 2.9211 13.56752)
( -10.0 2.92229 13.56752)
( -10.0 2.92348 13.56752)
( -10.0 2.92468 13.56752)
( -10.0 2.92587 13.56752)
( -10.0 2.92706 13.56752)
( -10.0 2.92826 13.56752)
( -10.0 2.92945 13.56752)
( -10.0 2.93064 13.56752)
( -10.0 2.93184 13.56752)
( -10.0 2.93303 13.56752)
( -10.0 2.93422 13.56752)
( -10.0 2.93542 13.56752)
( -10.0 2.93661 13.56752)
( -10.0 2.93781 13.56752)
( -10.0 2.939 13.56752)
( -10.0 2.94019 13.56752)
( -10.0 2.94139 13.56752)
( -10.0 2.94258 13.56752)
( -10.0 2.94377 13.56752)
( -10.0 2.94497 13.56752)
( -10.0 2.94616 13.56752)
( -10.0 2.94735 13.56752)
( -10.0 2.94855 13.56752)
( -10.0 2.94974 13.56752)
( -10.0 2.95093 13.56752)
( -10.0 2.95213 13.56752)
( -10.0 2.95332 13.56752)
( -10.0 2.95452 13.56752)
( -10.0 2.95571 13.56752)
( -10.0 2.9569 13.56752)
( -10.0 2.9581 13.56752)
( -10.0 2.95929 13.56752)
( -10.0 2.96048 13.56752)
( -10.0 2.96168 13.56752)
( -10.0 2.96287 13.56752)
( -10.0 2.96406 13.56752)
( -10.0 2.96526 13.56752)
( -10.0 2.96645 13.56752)
( -10.0 2.96764 13.56752)
( -10.0 2.96884 13.56752)
( -10.0 2.97003 13.56752)
( -10.0 2.97123 13.56752)
( -10.0 2.97242 13.56752)
( -10.0 2.97361 13.56752)
( -10.0 2.97481 13.56752)
( -10.0 2.976 13.56752)
( -10.0 2.97719 13.56752)
( -10.0 2.97839 13.56752)
( -10.0 2.97958 13.56752)
( -10.0 2.98077 13.56752)
( -10.0 2.98197 13.56752)
( -10.0 2.98316 13.56752)
( -10.0 2.98435 13.56752)
( -10.0 2.98555 13.56752)
( -10.0 2.98674 13.56752)
( -10.0 2.98794 13.56752)
( -10.0 2.98913 13.56752)
( -10.0 2.99032 13.56752)
( -10.0 2.99152 13.56752)
( -10.0 2.99271 13.56752)
( -10.0 2.9939 13.56752)
( -10.0 2.9951 13.56752)
( -10.0 2.99629 13.56752)
( -10.0 2.99748 13.56752)
( -10.0 2.99868 13.56752)
( -10.0 2.99987 13.56752)
( -10.0 3.00106 13.56752)
( -10.0 3.00226 13.56752)
( -10.0 3.00345 13.56752)
( -10.0 3.00464 13.56752)
( -10.0 3.00584 13.56752)
( -10.0 3.00703 13.56752)
( -10.0 3.00823 13.56752)
( -10.0 3.00942 13.56752)
( -10.0 3.01061 13.56752)
( -10.0 3.01181 13.56752)
( -10.0 3.013 13.56752)
( -10.0 3.01419 13.56752)
( -10.0 3.01539 13.56752)
( -10.0 3.01658 13.56752)
( -10.0 3.01777 13.56752)
( -10.0 3.01897 13.56752)
( -10.0 3.02016 13.56752)
( -10.0 3.02135 13.56752)
( -10.0 3.02255 13.56752)
( -10.0 3.02374 13.56752)
( -10.0 3.02494 13.56752)
( -10.0 3.02613 13.56752)
( -10.0 3.02732 13.56752)
( -10.0 3.02852 13.56752)
( -10.0 3.02971 13.56752)
( -10.0 3.0309 13.56752)
( -10.0 3.0321 13.56752)
( -10.0 3.03329 13.56752)
( -10.0 3.03448 13.56752)
( -10.0 3.03568 13.56752)
( -10.0 3.03687 13.56752)
( -10.0 3.03806 13.56752)
( -10.0 3.03926 13.56752)
( -10.0 3.04045 13.56752)
( -10.0 3.04165 13.56752)
( -10.0 3.04284 13.56752)
( -10.0 3.04403 13.56752)
( -10.0 3.04523 13.56752)
( -10.0 3.04642 13.56752)
( -10.0 3.04761 13.56752)
( -10.0 3.04881 13.56752)
( -10.0 3.05 13.56752)
( -10.0 3.05119 13.56752)
( -10.0 3.05239 13.56752)
( -10.0 3.05358 13.56752)
( -10.0 3.05477 13.56752)
( -10.0 3.05597 13.56752)
( -10.0 3.05716 13.56752)
( -10.0 3.05835 13.56752)
( -10.0 3.05955 13.56752)
( -10.0 3.06074 13.56752)
( -10.0 3.06194 13.56752)
( -10.0 3.06313 13.56752)
( -10.0 3.06432 13.56752)
( -10.0 3.06552 13.56752)
( -10.0 3.06671 13.56752)
( -10.0 3.0679 13.56752)
( -10.0 3.0691 13.56752)
( -10.0 3.07029 13.56752)
( -10.0 3.07148 13.56752)
( -10.0 3.07268 13.56752)
( -10.0 3.07387 13.56752)
( -10.0 3.07506 13.56752)
( -10.0 3.07626 13.56752)
( -10.0 3.07745 13.56752)
( -10.0 3.07865 13.56752)
( -10.0 3.07984 13.56752)
( -10.0 3.08103 13.56752)
( -10.0 3.08223 13.56752)
( -10.0 3.08342 13.56752)
( -10.0 3.08461 13.56752)
( -10.0 3.08581 13.56752)
( -10.0 3.087 13.56752)
( -10.0 3.08819 13.56752)
( -10.0 3.08939 13.56752)
( -10.0 3.09058 13.56752)
( -10.0 3.09177 13.56752)
( -10.0 3.09297 13.56752)
( -10.0 3.09416 13.56752)
( -10.0 3.09536 13.56752)
( -10.0 3.09655 13.56752)
( -10.0 3.09774 13.56752)
( -10.0 3.09894 13.56752)
( -10.0 3.10013 13.56752)
( -10.0 3.10132 13.56752)
( -10.0 3.10252 13.56752)
( -10.0 3.10371 13.56752)
( -10.0 3.1049 13.56752)
( -10.0 3.1061 13.56752)
( -10.0 3.10729 13.56752)
( -10.0 3.10848 13.56752)
( -10.0 3.10968 13.56752)
( -10.0 3.11087 13.56752)
( -10.0 3.11206 13.56752)
( -10.0 3.11326 13.56752)
( -10.0 3.11445 13.56752)
( -10.0 3.11565 13.56752)
( -10.0 3.11684 13.56752)
( -10.0 3.11803 13.56752)
( -10.0 3.11923 13.56752)
( -10.0 3.12042 13.56752)
( -10.0 3.12161 13.56752)
( -10.0 3.12281 13.56752)
( -10.0 3.124 13.56752)
( -10.0 3.12519 13.56752)
( -10.0 3.12639 13.56752)
( -10.0 3.12758 13.56752)
( -10.0 3.12877 13.56752)
( -10.0 3.12997 13.56752)
( -10.0 3.13116 13.56752)
( -10.0 3.13236 13.56752)
( -10.0 3.13355 13.56752)
( -10.0 3.13474 13.56752)
( -10.0 3.13594 13.56752)
( -10.0 3.13713 13.56752)
( -10.0 3.13832 13.56752)
( -10.0 3.13952 13.56752)
( -10.0 3.14071 13.56752)
( -10.0 3.1419 13.56752)
( -10.0 3.1431 13.56752)
( -10.0 3.14429 13.56752)
( -10.0 3.14548 13.56752)
( -10.0 3.14668 13.56752)
( -10.0 3.14787 13.56752)
( -10.0 3.14907 13.56752)
( -10.0 3.15026 13.56752)
( -10.0 3.15145 13.56752)
( -10.0 3.15265 13.56752)
( -10.0 3.15384 13.56752)
( -10.0 3.15503 13.56752)
( -10.0 3.15623 13.56752)
( -10.0 3.15742 13.56752)
( -10.0 3.15861 13.56752)
( -10.0 3.15981 13.56752)
( -10.0 3.161 13.56752)
( -10.0 3.16219 13.56752)
( -10.0 3.16339 13.56752)
( -10.0 3.16458 13.56752)
( -10.0 3.16578 13.56752)
( -10.0 3.16697 13.56752)
( -10.0 3.16816 13.56752)
( -10.0 3.16936 13.56752)
( -10.0 3.17055 13.56752)
( -10.0 3.17174 13.56752)
( -10.0 3.17294 13.56752)
( -10.0 3.17413 13.56752)
( -10.0 3.17532 13.56752)
( -10.0 3.17652 13.56752)
( -10.0 3.17771 13.56752)
( -10.0 3.1789 13.56752)
( -10.0 3.1801 13.56752)
( -10.0 3.18129 13.56752)
( -10.0 3.18248 13.56752)
( -10.0 3.18368 13.56752)
( -10.0 2.91632 13.56871)
( -10.0 2.91752 13.56871)
( -10.0 2.91871 13.56871)
( -10.0 2.9199 13.56871)
( -10.0 2.9211 13.56871)
( -10.0 2.92229 13.56871)
( -10.0 2.92348 13.56871)
( -10.0 2.92468 13.56871)
( -10.0 2.92587 13.56871)
( -10.0 2.92706 13.56871)
( -10.0 2.92826 13.56871)
( -10.0 2.92945 13.56871)
( -10.0 2.93064 13.56871)
( -10.0 2.93184 13.56871)
( -10.0 2.93303 13.56871)
( -10.0 2.93422 13.56871)
( -10.0 2.93542 13.56871)
( -10.0 2.93661 13.56871)
( -10.0 2.93781 13.56871)
( -10.0 2.939 13.56871)
( -10.0 2.94019 13.56871)
( -10.0 2.94139 13.56871)
( -10.0 2.94258 13.56871)
( -10.0 2.94377 13.56871)
( -10.0 2.94497 13.56871)
( -10.0 2.94616 13.56871)
( -10.0 2.94735 13.56871)
( -10.0 2.94855 13.56871)
( -10.0 2.94974 13.56871)
( -10.0 2.95093 13.56871)
( -10.0 2.95213 13.56871)
( -10.0 2.95332 13.56871)
( -10.0 2.95452 13.56871)
( -10.0 2.95571 13.56871)
( -10.0 2.9569 13.56871)
( -10.0 2.9581 13.56871)
( -10.0 2.95929 13.56871)
( -10.0 2.96048 13.56871)
( -10.0 2.96168 13.56871)
( -10.0 2.96287 13.56871)
( -10.0 2.96406 13.56871)
( -10.0 2.96526 13.56871)
( -10.0 2.96645 13.56871)
( -10.0 2.96764 13.56871)
( -10.0 2.96884 13.56871)
( -10.0 2.97003 13.56871)
( -10.0 2.97123 13.56871)
( -10.0 2.97242 13.56871)
( -10.0 2.97361 13.56871)
( -10.0 2.97481 13.56871)
( -10.0 2.976 13.56871)
( -10.0 2.97719 13.56871)
( -10.0 2.97839 13.56871)
( -10.0 2.97958 13.56871)
( -10.0 2.98077 13.56871)
( -10.0 2.98197 13.56871)
( -10.0 2.98316 13.56871)
( -10.0 2.98435 13.56871)
( -10.0 2.98555 13.56871)
( -10.0 2.98674 13.56871)
( -10.0 2.98794 13.56871)
( -10.0 2.98913 13.56871)
( -10.0 2.99032 13.56871)
( -10.0 2.99152 13.56871)
( -10.0 2.99271 13.56871)
( -10.0 2.9939 13.56871)
( -10.0 2.9951 13.56871)
( -10.0 2.99629 13.56871)
( -10.0 2.99748 13.56871)
( -10.0 2.99868 13.56871)
( -10.0 2.99987 13.56871)
( -10.0 3.00106 13.56871)
( -10.0 3.00226 13.56871)
( -10.0 3.00345 13.56871)
( -10.0 3.00464 13.56871)
( -10.0 3.00584 13.56871)
( -10.0 3.00703 13.56871)
( -10.0 3.00823 13.56871)
( -10.0 3.00942 13.56871)
( -10.0 3.01061 13.56871)
( -10.0 3.01181 13.56871)
( -10.0 3.013 13.56871)
( -10.0 3.01419 13.56871)
( -10.0 3.01539 13.56871)
( -10.0 3.01658 13.56871)
( -10.0 3.01777 13.56871)
( -10.0 3.01897 13.56871)
( -10.0 3.02016 13.56871)
( -10.0 3.02135 13.56871)
( -10.0 3.02255 13.56871)
( -10.0 3.02374 13.56871)
( -10.0 3.02494 13.56871)
( -10.0 3.02613 13.56871)
( -10.0 3.02732 13.56871)
( -10.0 3.02852 13.56871)
( -10.0 3.02971 13.56871)
( -10.0 3.0309 13.56871)
( -10.0 3.0321 13.56871)
( -10.0 3.03329 13.56871)
( -10.0 3.03448 13.56871)
( -10.0 3.03568 13.56871)
( -10.0 3.03687 13.56871)
( -10.0 3.03806 13.56871)
( -10.0 3.03926 13.56871)
( -10.0 3.04045 13.56871)
( -10.0 3.04165 13.56871)
( -10.0 3.04284 13.56871)
( -10.0 3.04403 13.56871)
( -10.0 3.04523 13.56871)
( -10.0 3.04642 13.56871)
( -10.0 3.04761 13.56871)
( -10.0 3.04881 13.56871)
( -10.0 3.05 13.56871)
( -10.0 3.05119 13.56871)
( -10.0 3.05239 13.56871)
( -10.0 3.05358 13.56871)
( -10.0 3.05477 13.56871)
( -10.0 3.05597 13.56871)
( -10.0 3.05716 13.56871)
( -10.0 3.05835 13.56871)
( -10.0 3.05955 13.56871)
( -10.0 3.06074 13.56871)
( -10.0 3.06194 13.56871)
( -10.0 3.06313 13.56871)
( -10.0 3.06432 13.56871)
( -10.0 3.06552 13.56871)
( -10.0 3.06671 13.56871)
( -10.0 3.0679 13.56871)
( -10.0 3.0691 13.56871)
( -10.0 3.07029 13.56871)
( -10.0 3.07148 13.56871)
( -10.0 3.07268 13.56871)
( -10.0 3.07387 13.56871)
( -10.0 3.07506 13.56871)
( -10.0 3.07626 13.56871)
( -10.0 3.07745 13.56871)
( -10.0 3.07865 13.56871)
( -10.0 3.07984 13.56871)
( -10.0 3.08103 13.56871)
( -10.0 3.08223 13.56871)
( -10.0 3.08342 13.56871)
( -10.0 3.08461 13.56871)
( -10.0 3.08581 13.56871)
( -10.0 3.087 13.56871)
( -10.0 3.08819 13.56871)
( -10.0 3.08939 13.56871)
( -10.0 3.09058 13.56871)
( -10.0 3.09177 13.56871)
( -10.0 3.09297 13.56871)
( -10.0 3.09416 13.56871)
( -10.0 3.09536 13.56871)
( -10.0 3.09655 13.56871)
( -10.0 3.09774 13.56871)
( -10.0 3.09894 13.56871)
( -10.0 3.10013 13.56871)
( -10.0 3.10132 13.56871)
( -10.0 3.10252 13.56871)
( -10.0 3.10371 13.56871)
( -10.0 3.1049 13.56871)
( -10.0 3.1061 13.56871)
( -10.0 3.10729 13.56871)
( -10.0 3.10848 13.56871)
( -10.0 3.10968 13.56871)
( -10.0 3.11087 13.56871)
( -10.0 3.11206 13.56871)
( -10.0 3.11326 13.56871)
( -10.0 3.11445 13.56871)
( -10.0 3.11565 13.56871)
( -10.0 3.11684 13.56871)
( -10.0 3.11803 13.56871)
( -10.0 3.11923 13.56871)
( -10.0 3.12042 13.56871)
( -10.0 3.12161 13.56871)
( -10.0 3.12281 13.56871)
( -10.0 3.124 13.56871)
( -10.0 3.12519 13.56871)
( -10.0 3.12639 13.56871)
( -10.0 3.12758 13.56871)
( -10.0 3.12877 13.56871)
( -10.0 3.12997 13.56871)
( -10.0 3.13116 13.56871)
( -10.0 3.13236 13.56871)
( -10.0 3.13355 13.56871)
( -10.0 3.13474 13.56871)
( -10.0 3.13594 13.56871)
( -10.0 3.13713 13.56871)
( -10.0 3.13832 13.56871)
( -10.0 3.13952 13.56871)
( -10.0 3.14071 13.56871)
( -10.0 3.1419 13.56871)
( -10.0 3.1431 13.56871)
( -10.0 3.14429 13.56871)
( -10.0 3.14548 13.56871)
( -10.0 3.14668 13.56871)
( -10.0 3.14787 13.56871)
( -10.0 3.14907 13.56871)
( -10.0 3.15026 13.56871)
( -10.0 3.15145 13.56871)
( -10.0 3.15265 13.56871)
( -10.0 3.15384 13.56871)
( -10.0 3.15503 13.56871)
( -10.0 3.15623 13.56871)
( -10.0 3.15742 13.56871)
( -10.0 3.15861 13.56871)
( -10.0 3.15981 13.56871)
( -10.0 3.161 13.56871)
( -10.0 3.16219 13.56871)
( -10.0 3.16339 13.56871)
( -10.0 3.16458 13.56871)
( -10.0 3.16578 13.56871)
( -10.0 3.16697 13.56871)
( -10.0 3.16816 13.56871)
( -10.0 3.16936 13.56871)
( -10.0 3.17055 13.56871)
( -10.0 3.17174 13.56871)
( -10.0 3.17294 13.56871)
( -10.0 3.17413 13.56871)
( -10.0 3.17532 13.56871)
( -10.0 3.17652 13.56871)
( -10.0 3.17771 13.56871)
( -10.0 3.1789 13.56871)
( -10.0 3.1801 13.56871)
( -10.0 3.18129 13.56871)
( -10.0 3.18248 13.56871)
( -10.0 3.18368 13.56871)
( -10.0 2.91632 13.5699)
( -10.0 2.91752 13.5699)
( -10.0 2.91871 13.5699)
( -10.0 2.9199 13.5699)
( -10.0 2.9211 13.5699)
( -10.0 2.92229 13.5699)
( -10.0 2.92348 13.5699)
( -10.0 2.92468 13.5699)
( -10.0 2.92587 13.5699)
( -10.0 2.92706 13.5699)
( -10.0 2.92826 13.5699)
( -10.0 2.92945 13.5699)
( -10.0 2.93064 13.5699)
( -10.0 2.93184 13.5699)
( -10.0 2.93303 13.5699)
( -10.0 2.93422 13.5699)
( -10.0 2.93542 13.5699)
( -10.0 2.93661 13.5699)
( -10.0 2.93781 13.5699)
( -10.0 2.939 13.5699)
( -10.0 2.94019 13.5699)
( -10.0 2.94139 13.5699)
( -10.0 2.94258 13.5699)
( -10.0 2.94377 13.5699)
( -10.0 2.94497 13.5699)
( -10.0 2.94616 13.5699)
( -10.0 2.94735 13.5699)
( -10.0 2.94855 13.5699)
( -10.0 2.94974 13.5699)
( -10.0 2.95093 13.5699)
( -10.0 2.95213 13.5699)
( -10.0 2.95332 13.5699)
( -10.0 2.95452 13.5699)
( -10.0 2.95571 13.5699)
( -10.0 2.9569 13.5699)
( -10.0 2.9581 13.5699)
( -10.0 2.95929 13.5699)
( -10.0 2.96048 13.5699)
( -10.0 2.96168 13.5699)
( -10.0 2.96287 13.5699)
( -10.0 2.96406 13.5699)
( -10.0 2.96526 13.5699)
( -10.0 2.96645 13.5699)
( -10.0 2.96764 13.5699)
( -10.0 2.96884 13.5699)
( -10.0 2.97003 13.5699)
( -10.0 2.97123 13.5699)
( -10.0 2.97242 13.5699)
( -10.0 2.97361 13.5699)
( -10.0 2.97481 13.5699)
( -10.0 2.976 13.5699)
( -10.0 2.97719 13.5699)
( -10.0 2.97839 13.5699)
( -10.0 2.97958 13.5699)
( -10.0 2.98077 13.5699)
( -10.0 2.98197 13.5699)
( -10.0 2.98316 13.5699)
( -10.0 2.98435 13.5699)
( -10.0 2.98555 13.5699)
( -10.0 2.98674 13.5699)
( -10.0 2.98794 13.5699)
( -10.0 2.98913 13.5699)
( -10.0 2.99032 13.5699)
( -10.0 2.99152 13.5699)
( -10.0 2.99271 13.5699)
( -10.0 2.9939 13.5699)
( -10.0 2.9951 13.5699)
( -10.0 2.99629 13.5699)
( -10.0 2.99748 13.5699)
( -10.0 2.99868 13.5699)
( -10.0 2.99987 13.5699)
( -10.0 3.00106 13.5699)
( -10.0 3.00226 13.5699)
( -10.0 3.00345 13.5699)
( -10.0 3.00464 13.5699)
( -10.0 3.00584 13.5699)
( -10.0 3.00703 13.5699)
( -10.0 3.00823 13.5699)
( -10.0 3.00942 13.5699)
( -10.0 3.01061 13.5699)
( -10.0 3.01181 13.5699)
( -10.0 3.013 13.5699)
( -10.0 3.01419 13.5699)
( -10.0 3.01539 13.5699)
( -10.0 3.01658 13.5699)
( -10.0 3.01777 13.5699)
( -10.0 3.01897 13.5699)
( -10.0 3.02016 13.5699)
( -10.0 3.02135 13.5699)
( -10.0 3.02255 13.5699)
( -10.0 3.02374 13.5699)
( -10.0 3.02494 13.5699)
( -10.0 3.02613 13.5699)
( -10.0 3.02732 13.5699)
( -10.0 3.02852 13.5699)
( -10.0 3.02971 13.5699)
( -10.0 3.0309 13.5699)
( -10.0 3.0321 13.5699)
( -10.0 3.03329 13.5699)
( -10.0 3.03448 13.5699)
( -10.0 3.03568 13.5699)
( -10.0 3.03687 13.5699)
( -10.0 3.03806 13.5699)
( -10.0 3.03926 13.5699)
( -10.0 3.04045 13.5699)
( -10.0 3.04165 13.5699)
( -10.0 3.04284 13.5699)
( -10.0 3.04403 13.5699)
( -10.0 3.04523 13.5699)
( -10.0 3.04642 13.5699)
( -10.0 3.04761 13.5699)
( -10.0 3.04881 13.5699)
( -10.0 3.05 13.5699)
( -10.0 3.05119 13.5699)
( -10.0 3.05239 13.5699)
( -10.0 3.05358 13.5699)
( -10.0 3.05477 13.5699)
( -10.0 3.05597 13.5699)
( -10.0 3.05716 13.5699)
( -10.0 3.05835 13.5699)
( -10.0 3.05955 13.5699)
( -10.0 3.06074 13.5699)
( -10.0 3.06194 13.5699)
( -10.0 3.06313 13.5699)
( -10.0 3.06432 13.5699)
( -10.0 3.06552 13.5699)
( -10.0 3.06671 13.5699)
( -10.0 3.0679 13.5699)
( -10.0 3.0691 13.5699)
( -10.0 3.07029 13.5699)
( -10.0 3.07148 13.5699)
( -10.0 3.07268 13.5699)
( -10.0 3.07387 13.5699)
( -10.0 3.07506 13.5699)
( -10.0 3.07626 13.5699)
( -10.0 3.07745 13.5699)
( -10.0 3.07865 13.5699)
( -10.0 3.07984 13.5699)
( -10.0 3.08103 13.5699)
( -10.0 3.08223 13.5699)
( -10.0 3.08342 13.5699)
( -10.0 3.08461 13.5699)
( -10.0 3.08581 13.5699)
( -10.0 3.087 13.5699)
( -10.0 3.08819 13.5699)
( -10.0 3.08939 13.5699)
( -10.0 3.09058 13.5699)
( -10.0 3.09177 13.5699)
( -10.0 3.09297 13.5699)
( -10.0 3.09416 13.5699)
( -10.0 3.09536 13.5699)
( -10.0 3.09655 13.5699)
( -10.0 3.09774 13.5699)
( -10.0 3.09894 13.5699)
( -10.0 3.10013 13.5699)
( -10.0 3.10132 13.5699)
( -10.0 3.10252 13.5699)
( -10.0 3.10371 13.5699)
( -10.0 3.1049 13.5699)
( -10.0 3.1061 13.5699)
( -10.0 3.10729 13.5699)
( -10.0 3.10848 13.5699)
( -10.0 3.10968 13.5699)
( -10.0 3.11087 13.5699)
( -10.0 3.11206 13.5699)
( -10.0 3.11326 13.5699)
( -10.0 3.11445 13.5699)
( -10.0 3.11565 13.5699)
( -10.0 3.11684 13.5699)
( -10.0 3.11803 13.5699)
( -10.0 3.11923 13.5699)
( -10.0 3.12042 13.5699)
( -10.0 3.12161 13.5699)
( -10.0 3.12281 13.5699)
( -10.0 3.124 13.5699)
( -10.0 3.12519 13.5699)
( -10.0 3.12639 13.5699)
( -10.0 3.12758 13.5699)
( -10.0 3.12877 13.5699)
( -10.0 3.12997 13.5699)
( -10.0 3.13116 13.5699)
( -10.0 3.13236 13.5699)
( -10.0 3.13355 13.5699)
( -10.0 3.13474 13.5699)
( -10.0 3.13594 13.5699)
( -10.0 3.13713 13.5699)
( -10.0 3.13832 13.5699)
( -10.0 3.13952 13.5699)
( -10.0 3.14071 13.5699)
( -10.0 3.1419 13.5699)
( -10.0 3.1431 13.5699)
( -10.0 3.14429 13.5699)
( -10.0 3.14548 13.5699)
( -10.0 3.14668 13.5699)
( -10.0 3.14787 13.5699)
( -10.0 3.14907 13.5699)
( -10.0 3.15026 13.5699)
( -10.0 3.15145 13.5699)
( -10.0 3.15265 13.5699)
( -10.0 3.15384 13.5699)
( -10.0 3.15503 13.5699)
( -10.0 3.15623 13.5699)
( -10.0 3.15742 13.5699)
( -10.0 3.15861 13.5699)
( -10.0 3.15981 13.5699)
( -10.0 3.161 13.5699)
( -10.0 3.16219 13.5699)
( -10.0 3.16339 13.5699)
( -10.0 3.16458 13.5699)
( -10.0 3.16578 13.5699)
( -10.0 3.16697 13.5699)
( -10.0 3.16816 13.5699)
( -10.0 3.16936 13.5699)
( -10.0 3.17055 13.5699)
( -10.0 3.17174 13.5699)
( -10.0 3.17294 13.5699)
( -10.0 3.17413 13.5699)
( -10.0 3.17532 13.5699)
( -10.0 3.17652 13.5699)
( -10.0 3.17771 13.5699)
( -10.0 3.1789 13.5699)
( -10.0 3.1801 13.5699)
( -10.0 3.18129 13.5699)
( -10.0 3.18248 13.5699)
( -10.0 3.18368 13.5699)
( -10.0 2.91632 13.5711)
( -10.0 2.91752 13.5711)
( -10.0 2.91871 13.5711)
( -10.0 2.9199 13.5711)
( -10.0 2.9211 13.5711)
( -10.0 2.92229 13.5711)
( -10.0 2.92348 13.5711)
( -10.0 2.92468 13.5711)
( -10.0 2.92587 13.5711)
( -10.0 2.92706 13.5711)
( -10.0 2.92826 13.5711)
( -10.0 2.92945 13.5711)
( -10.0 2.93064 13.5711)
( -10.0 2.93184 13.5711)
( -10.0 2.93303 13.5711)
( -10.0 2.93422 13.5711)
( -10.0 2.93542 13.5711)
( -10.0 2.93661 13.5711)
( -10.0 2.93781 13.5711)
( -10.0 2.939 13.5711)
( -10.0 2.94019 13.5711)
( -10.0 2.94139 13.5711)
( -10.0 2.94258 13.5711)
( -10.0 2.94377 13.5711)
( -10.0 2.94497 13.5711)
( -10.0 2.94616 13.5711)
( -10.0 2.94735 13.5711)
( -10.0 2.94855 13.5711)
( -10.0 2.94974 13.5711)
( -10.0 2.95093 13.5711)
( -10.0 2.95213 13.5711)
( -10.0 2.95332 13.5711)
( -10.0 2.95452 13.5711)
( -10.0 2.95571 13.5711)
( -10.0 2.9569 13.5711)
( -10.0 2.9581 13.5711)
( -10.0 2.95929 13.5711)
( -10.0 2.96048 13.5711)
( -10.0 2.96168 13.5711)
( -10.0 2.96287 13.5711)
( -10.0 2.96406 13.5711)
( -10.0 2.96526 13.5711)
( -10.0 2.96645 13.5711)
( -10.0 2.96764 13.5711)
( -10.0 2.96884 13.5711)
( -10.0 2.97003 13.5711)
( -10.0 2.97123 13.5711)
( -10.0 2.97242 13.5711)
( -10.0 2.97361 13.5711)
( -10.0 2.97481 13.5711)
( -10.0 2.976 13.5711)
( -10.0 2.97719 13.5711)
( -10.0 2.97839 13.5711)
( -10.0 2.97958 13.5711)
( -10.0 2.98077 13.5711)
( -10.0 2.98197 13.5711)
( -10.0 2.98316 13.5711)
( -10.0 2.98435 13.5711)
( -10.0 2.98555 13.5711)
( -10.0 2.98674 13.5711)
( -10.0 2.98794 13.5711)
( -10.0 2.98913 13.5711)
( -10.0 2.99032 13.5711)
( -10.0 2.99152 13.5711)
( -10.0 2.99271 13.5711)
( -10.0 2.9939 13.5711)
( -10.0 2.9951 13.5711)
( -10.0 2.99629 13.5711)
( -10.0 2.99748 13.5711)
( -10.0 2.99868 13.5711)
( -10.0 2.99987 13.5711)
( -10.0 3.00106 13.5711)
( -10.0 3.00226 13.5711)
( -10.0 3.00345 13.5711)
( -10.0 3.00464 13.5711)
( -10.0 3.00584 13.5711)
( -10.0 3.00703 13.5711)
( -10.0 3.00823 13.5711)
( -10.0 3.00942 13.5711)
( -10.0 3.01061 13.5711)
( -10.0 3.01181 13.5711)
( -10.0 3.013 13.5711)
( -10.0 3.01419 13.5711)
( -10.0 3.01539 13.5711)
( -10.0 3.01658 13.5711)
( -10.0 3.01777 13.5711)
( -10.0 3.01897 13.5711)
( -10.0 3.02016 13.5711)
( -10.0 3.02135 13.5711)
( -10.0 3.02255 13.5711)
( -10.0 3.02374 13.5711)
( -10.0 3.02494 13.5711)
( -10.0 3.02613 13.5711)
( -10.0 3.02732 13.5711)
( -10.0 3.02852 13.5711)
( -10.0 3.02971 13.5711)
( -10.0 3.0309 13.5711)
( -10.0 3.0321 13.5711)
( -10.0 3.03329 13.5711)
( -10.0 3.03448 13.5711)
( -10.0 3.03568 13.5711)
( -10.0 3.03687 13.5711)
( -10.0 3.03806 13.5711)
( -10.0 3.03926 13.5711)
( -10.0 3.04045 13.5711)
( -10.0 3.04165 13.5711)
( -10.0 3.04284 13.5711)
( -10.0 3.04403 13.5711)
( -10.0 3.04523 13.5711)
( -10.0 3.04642 13.5711)
( -10.0 3.04761 13.5711)
( -10.0 3.04881 13.5711)
( -10.0 3.05 13.5711)
( -10.0 3.05119 13.5711)
( -10.0 3.05239 13.5711)
( -10.0 3.05358 13.5711)
( -10.0 3.05477 13.5711)
( -10.0 3.05597 13.5711)
( -10.0 3.05716 13.5711)
( -10.0 3.05835 13.5711)
( -10.0 3.05955 13.5711)
( -10.0 3.06074 13.5711)
( -10.0 3.06194 13.5711)
( -10.0 3.06313 13.5711)
( -10.0 3.06432 13.5711)
( -10.0 3.06552 13.5711)
( -10.0 3.06671 13.5711)
( -10.0 3.0679 13.5711)
( -10.0 3.0691 13.5711)
( -10.0 3.07029 13.5711)
( -10.0 3.07148 13.5711)
( -10.0 3.07268 13.5711)
( -10.0 3.07387 13.5711)
( -10.0 3.07506 13.5711)
( -10.0 3.07626 13.5711)
( -10.0 3.07745 13.5711)
( -10.0 3.07865 13.5711)
( -10.0 3.07984 13.5711)
( -10.0 3.08103 13.5711)
( -10.0 3.08223 13.5711)
( -10.0 3.08342 13.5711)
( -10.0 3.08461 13.5711)
( -10.0 3.08581 13.5711)
( -10.0 3.087 13.5711)
( -10.0 3.08819 13.5711)
( -10.0 3.08939 13.5711)
( -10.0 3.09058 13.5711)
( -10.0 3.09177 13.5711)
( -10.0 3.09297 13.5711)
( -10.0 3.09416 13.5711)
( -10.0 3.09536 13.5711)
( -10.0 3.09655 13.5711)
( -10.0 3.09774 13.5711)
( -10.0 3.09894 13.5711)
( -10.0 3.10013 13.5711)
( -10.0 3.10132 13.5711)
( -10.0 3.10252 13.5711)
( -10.0 3.10371 13.5711)
( -10.0 3.1049 13.5711)
( -10.0 3.1061 13.5711)
( -10.0 3.10729 13.5711)
( -10.0 3.10848 13.5711)
( -10.0 3.10968 13.5711)
( -10.0 3.11087 13.5711)
( -10.0 3.11206 13.5711)
( -10.0 3.11326 13.5711)
( -10.0 3.11445 13.5711)
( -10.0 3.11565 13.5711)
( -10.0 3.11684 13.5711)
( -10.0 3.11803 13.5711)
( -10.0 3.11923 13.5711)
( -10.0 3.12042 13.5711)
( -10.0 3.12161 13.5711)
( -10.0 3.12281 13.5711)
( -10.0 3.124 13.5711)
( -10.0 3.12519 13.5711)
( -10.0 3.12639 13.5711)
( -10.0 3.12758 13.5711)
( -10.0 3.12877 13.5711)
( -10.0 3.12997 13.5711)
( -10.0 3.13116 13.5711)
( -10.0 3.13236 13.5711)
( -10.0 3.13355 13.5711)
( -10.0 3.13474 13.5711)
( -10.0 3.13594 13.5711)
( -10.0 3.13713 13.5711)
( -10.0 3.13832 13.5711)
( -10.0 3.13952 13.5711)
( -10.0 3.14071 13.5711)
( -10.0 3.1419 13.5711)
( -10.0 3.1431 13.5711)
( -10.0 3.14429 13.5711)
( -10.0 3.14548 13.5711)
( -10.0 3.14668 13.5711)
( -10.0 3.14787 13.5711)
( -10.0 3.14907 13.5711)
( -10.0 3.15026 13.5711)
( -10.0 3.15145 13.5711)
( -10.0 3.15265 13.5711)
( -10.0 3.15384 13.5711)
( -10.0 3.15503 13.5711)
( -10.0 3.15623 13.5711)
( -10.0 3.15742 13.5711)
( -10.0 3.15861 13.5711)
( -10.0 3.15981 13.5711)
( -10.0 3.161 13.5711)
( -10.0 3.16219 13.5711)
( -10.0 3.16339 13.5711)
( -10.0 3.16458 13.5711)
( -10.0 3.16578 13.5711)
( -10.0 3.16697 13.5711)
( -10.0 3.16816 13.5711)
( -10.0 3.16936 13.5711)
( -10.0 3.17055 13.5711)
( -10.0 3.17174 13.5711)
( -10.0 3.17294 13.5711)
( -10.0 3.17413 13.5711)
( -10.0 3.17532 13.5711)
( -10.0 3.17652 13.5711)
( -10.0 3.17771 13.5711)
( -10.0 3.1789 13.5711)
( -10.0 3.1801 13.5711)
( -10.0 3.18129 13.5711)
( -10.0 3.18248 13.5711)
( -10.0 3.18368 13.5711)
( -10.0 2.91632 13.57229)
( -10.0 2.91752 13.57229)
( -10.0 2.91871 13.57229)
( -10.0 2.9199 13.57229)
( -10.0 2.9211 13.57229)
( -10.0 2.92229 13.57229)
( -10.0 2.92348 13.57229)
( -10.0 2.92468 13.57229)
( -10.0 2.92587 13.57229)
( -10.0 2.92706 13.57229)
( -10.0 2.92826 13.57229)
( -10.0 2.92945 13.57229)
( -10.0 2.93064 13.57229)
( -10.0 2.93184 13.57229)
( -10.0 2.93303 13.57229)
( -10.0 2.93422 13.57229)
( -10.0 2.93542 13.57229)
( -10.0 2.93661 13.57229)
( -10.0 2.93781 13.57229)
( -10.0 2.939 13.57229)
( -10.0 2.94019 13.57229)
( -10.0 2.94139 13.57229)
( -10.0 2.94258 13.57229)
( -10.0 2.94377 13.57229)
( -10.0 2.94497 13.57229)
( -10.0 2.94616 13.57229)
( -10.0 2.94735 13.57229)
( -10.0 2.94855 13.57229)
( -10.0 2.94974 13.57229)
( -10.0 2.95093 13.57229)
( -10.0 2.95213 13.57229)
( -10.0 2.95332 13.57229)
( -10.0 2.95452 13.57229)
( -10.0 2.95571 13.57229)
( -10.0 2.9569 13.57229)
( -10.0 2.9581 13.57229)
( -10.0 2.95929 13.57229)
( -10.0 2.96048 13.57229)
( -10.0 2.96168 13.57229)
( -10.0 2.96287 13.57229)
( -10.0 2.96406 13.57229)
( -10.0 2.96526 13.57229)
( -10.0 2.96645 13.57229)
( -10.0 2.96764 13.57229)
( -10.0 2.96884 13.57229)