FoamFile
{
	version		2.0;
	format		ascii;
	class		vectorField;
	location	constant;
	object		positions;
}
// * * * * * * * * * * * * * * * * * * * * * * * * * * * * * * * * * * * * * //
(( -10.0 2.60632 13.61632)
( -10.0 2.60752 13.61632)
( -10.0 2.60871 13.61632)
( -10.0 2.6099 13.61632)
( -10.0 2.6111 13.61632)
( -10.0 2.61229 13.61632)
( -10.0 2.61348 13.61632)
( -10.0 2.61468 13.61632)
( -10.0 2.61587 13.61632)
( -10.0 2.61706 13.61632)
( -10.0 2.61826 13.61632)
( -10.0 2.61945 13.61632)
( -10.0 2.62064 13.61632)
( -10.0 2.62184 13.61632)
( -10.0 2.62303 13.61632)
( -10.0 2.62422 13.61632)
( -10.0 2.62542 13.61632)
( -10.0 2.62661 13.61632)
( -10.0 2.62781 13.61632)
( -10.0 2.629 13.61632)
( -10.0 2.63019 13.61632)
( -10.0 2.63139 13.61632)
( -10.0 2.63258 13.61632)
( -10.0 2.63377 13.61632)
( -10.0 2.63497 13.61632)
( -10.0 2.63616 13.61632)
( -10.0 2.63735 13.61632)
( -10.0 2.63855 13.61632)
( -10.0 2.63974 13.61632)
( -10.0 2.64093 13.61632)
( -10.0 2.64213 13.61632)
( -10.0 2.64332 13.61632)
( -10.0 2.64452 13.61632)
( -10.0 2.64571 13.61632)
( -10.0 2.6469 13.61632)
( -10.0 2.6481 13.61632)
( -10.0 2.64929 13.61632)
( -10.0 2.65048 13.61632)
( -10.0 2.65168 13.61632)
( -10.0 2.65287 13.61632)
( -10.0 2.65406 13.61632)
( -10.0 2.65526 13.61632)
( -10.0 2.65645 13.61632)
( -10.0 2.65764 13.61632)
( -10.0 2.65884 13.61632)
( -10.0 2.66003 13.61632)
( -10.0 2.66123 13.61632)
( -10.0 2.66242 13.61632)
( -10.0 2.66361 13.61632)
( -10.0 2.66481 13.61632)
( -10.0 2.666 13.61632)
( -10.0 2.66719 13.61632)
( -10.0 2.66839 13.61632)
( -10.0 2.66958 13.61632)
( -10.0 2.67077 13.61632)
( -10.0 2.67197 13.61632)
( -10.0 2.67316 13.61632)
( -10.0 2.67435 13.61632)
( -10.0 2.67555 13.61632)
( -10.0 2.67674 13.61632)
( -10.0 2.67794 13.61632)
( -10.0 2.67913 13.61632)
( -10.0 2.68032 13.61632)
( -10.0 2.68152 13.61632)
( -10.0 2.68271 13.61632)
( -10.0 2.6839 13.61632)
( -10.0 2.6851 13.61632)
( -10.0 2.68629 13.61632)
( -10.0 2.68748 13.61632)
( -10.0 2.68868 13.61632)
( -10.0 2.68987 13.61632)
( -10.0 2.69106 13.61632)
( -10.0 2.69226 13.61632)
( -10.0 2.69345 13.61632)
( -10.0 2.69464 13.61632)
( -10.0 2.69584 13.61632)
( -10.0 2.69703 13.61632)
( -10.0 2.69823 13.61632)
( -10.0 2.69942 13.61632)
( -10.0 2.70061 13.61632)
( -10.0 2.70181 13.61632)
( -10.0 2.703 13.61632)
( -10.0 2.70419 13.61632)
( -10.0 2.70539 13.61632)
( -10.0 2.70658 13.61632)
( -10.0 2.70777 13.61632)
( -10.0 2.70897 13.61632)
( -10.0 2.71016 13.61632)
( -10.0 2.71135 13.61632)
( -10.0 2.71255 13.61632)
( -10.0 2.71374 13.61632)
( -10.0 2.71494 13.61632)
( -10.0 2.71613 13.61632)
( -10.0 2.71732 13.61632)
( -10.0 2.71852 13.61632)
( -10.0 2.71971 13.61632)
( -10.0 2.7209 13.61632)
( -10.0 2.7221 13.61632)
( -10.0 2.72329 13.61632)
( -10.0 2.72448 13.61632)
( -10.0 2.72568 13.61632)
( -10.0 2.72687 13.61632)
( -10.0 2.72806 13.61632)
( -10.0 2.72926 13.61632)
( -10.0 2.73045 13.61632)
( -10.0 2.73165 13.61632)
( -10.0 2.73284 13.61632)
( -10.0 2.73403 13.61632)
( -10.0 2.73523 13.61632)
( -10.0 2.73642 13.61632)
( -10.0 2.73761 13.61632)
( -10.0 2.73881 13.61632)
( -10.0 2.74 13.61632)
( -10.0 2.74119 13.61632)
( -10.0 2.74239 13.61632)
( -10.0 2.74358 13.61632)
( -10.0 2.74477 13.61632)
( -10.0 2.74597 13.61632)
( -10.0 2.74716 13.61632)
( -10.0 2.74835 13.61632)
( -10.0 2.74955 13.61632)
( -10.0 2.75074 13.61632)
( -10.0 2.75194 13.61632)
( -10.0 2.75313 13.61632)
( -10.0 2.75432 13.61632)
( -10.0 2.75552 13.61632)
( -10.0 2.75671 13.61632)
( -10.0 2.7579 13.61632)
( -10.0 2.7591 13.61632)
( -10.0 2.76029 13.61632)
( -10.0 2.76148 13.61632)
( -10.0 2.76268 13.61632)
( -10.0 2.76387 13.61632)
( -10.0 2.76506 13.61632)
( -10.0 2.76626 13.61632)
( -10.0 2.76745 13.61632)
( -10.0 2.76865 13.61632)
( -10.0 2.76984 13.61632)
( -10.0 2.77103 13.61632)
( -10.0 2.77223 13.61632)
( -10.0 2.77342 13.61632)
( -10.0 2.77461 13.61632)
( -10.0 2.77581 13.61632)
( -10.0 2.777 13.61632)
( -10.0 2.77819 13.61632)
( -10.0 2.77939 13.61632)
( -10.0 2.78058 13.61632)
( -10.0 2.78177 13.61632)
( -10.0 2.78297 13.61632)
( -10.0 2.78416 13.61632)
( -10.0 2.78536 13.61632)
( -10.0 2.78655 13.61632)
( -10.0 2.78774 13.61632)
( -10.0 2.78894 13.61632)
( -10.0 2.79013 13.61632)
( -10.0 2.79132 13.61632)
( -10.0 2.79252 13.61632)
( -10.0 2.79371 13.61632)
( -10.0 2.7949 13.61632)
( -10.0 2.7961 13.61632)
( -10.0 2.79729 13.61632)
( -10.0 2.79848 13.61632)
( -10.0 2.79968 13.61632)
( -10.0 2.80087 13.61632)
( -10.0 2.80206 13.61632)
( -10.0 2.80326 13.61632)
( -10.0 2.80445 13.61632)
( -10.0 2.80565 13.61632)
( -10.0 2.80684 13.61632)
( -10.0 2.80803 13.61632)
( -10.0 2.80923 13.61632)
( -10.0 2.81042 13.61632)
( -10.0 2.81161 13.61632)
( -10.0 2.81281 13.61632)
( -10.0 2.814 13.61632)
( -10.0 2.81519 13.61632)
( -10.0 2.81639 13.61632)
( -10.0 2.81758 13.61632)
( -10.0 2.81877 13.61632)
( -10.0 2.81997 13.61632)
( -10.0 2.82116 13.61632)
( -10.0 2.82236 13.61632)
( -10.0 2.82355 13.61632)
( -10.0 2.82474 13.61632)
( -10.0 2.82594 13.61632)
( -10.0 2.82713 13.61632)
( -10.0 2.82832 13.61632)
( -10.0 2.82952 13.61632)
( -10.0 2.83071 13.61632)
( -10.0 2.8319 13.61632)
( -10.0 2.8331 13.61632)
( -10.0 2.83429 13.61632)
( -10.0 2.83548 13.61632)
( -10.0 2.83668 13.61632)
( -10.0 2.83787 13.61632)
( -10.0 2.83907 13.61632)
( -10.0 2.84026 13.61632)
( -10.0 2.84145 13.61632)
( -10.0 2.84265 13.61632)
( -10.0 2.84384 13.61632)
( -10.0 2.84503 13.61632)
( -10.0 2.84623 13.61632)
( -10.0 2.84742 13.61632)
( -10.0 2.84861 13.61632)
( -10.0 2.84981 13.61632)
( -10.0 2.851 13.61632)
( -10.0 2.85219 13.61632)
( -10.0 2.85339 13.61632)
( -10.0 2.85458 13.61632)
( -10.0 2.85578 13.61632)
( -10.0 2.85697 13.61632)
( -10.0 2.85816 13.61632)
( -10.0 2.85936 13.61632)
( -10.0 2.86055 13.61632)
( -10.0 2.86174 13.61632)
( -10.0 2.86294 13.61632)
( -10.0 2.86413 13.61632)
( -10.0 2.86532 13.61632)
( -10.0 2.86652 13.61632)
( -10.0 2.86771 13.61632)
( -10.0 2.8689 13.61632)
( -10.0 2.8701 13.61632)
( -10.0 2.87129 13.61632)
( -10.0 2.87248 13.61632)
( -10.0 2.87368 13.61632)
( -10.0 2.60632 13.61752)
( -10.0 2.60752 13.61752)
( -10.0 2.60871 13.61752)
( -10.0 2.6099 13.61752)
( -10.0 2.6111 13.61752)
( -10.0 2.61229 13.61752)
( -10.0 2.61348 13.61752)
( -10.0 2.61468 13.61752)
( -10.0 2.61587 13.61752)
( -10.0 2.61706 13.61752)
( -10.0 2.61826 13.61752)
( -10.0 2.61945 13.61752)
( -10.0 2.62064 13.61752)
( -10.0 2.62184 13.61752)
( -10.0 2.62303 13.61752)
( -10.0 2.62422 13.61752)
( -10.0 2.62542 13.61752)
( -10.0 2.62661 13.61752)
( -10.0 2.62781 13.61752)
( -10.0 2.629 13.61752)
( -10.0 2.63019 13.61752)
( -10.0 2.63139 13.61752)
( -10.0 2.63258 13.61752)
( -10.0 2.63377 13.61752)
( -10.0 2.63497 13.61752)
( -10.0 2.63616 13.61752)
( -10.0 2.63735 13.61752)
( -10.0 2.63855 13.61752)
( -10.0 2.63974 13.61752)
( -10.0 2.64093 13.61752)
( -10.0 2.64213 13.61752)
( -10.0 2.64332 13.61752)
( -10.0 2.64452 13.61752)
( -10.0 2.64571 13.61752)
( -10.0 2.6469 13.61752)
( -10.0 2.6481 13.61752)
( -10.0 2.64929 13.61752)
( -10.0 2.65048 13.61752)
( -10.0 2.65168 13.61752)
( -10.0 2.65287 13.61752)
( -10.0 2.65406 13.61752)
( -10.0 2.65526 13.61752)
( -10.0 2.65645 13.61752)
( -10.0 2.65764 13.61752)
( -10.0 2.65884 13.61752)
( -10.0 2.66003 13.61752)
( -10.0 2.66123 13.61752)
( -10.0 2.66242 13.61752)
( -10.0 2.66361 13.61752)
( -10.0 2.66481 13.61752)
( -10.0 2.666 13.61752)
( -10.0 2.66719 13.61752)
( -10.0 2.66839 13.61752)
( -10.0 2.66958 13.61752)
( -10.0 2.67077 13.61752)
( -10.0 2.67197 13.61752)
( -10.0 2.67316 13.61752)
( -10.0 2.67435 13.61752)
( -10.0 2.67555 13.61752)
( -10.0 2.67674 13.61752)
( -10.0 2.67794 13.61752)
( -10.0 2.67913 13.61752)
( -10.0 2.68032 13.61752)
( -10.0 2.68152 13.61752)
( -10.0 2.68271 13.61752)
( -10.0 2.6839 13.61752)
( -10.0 2.6851 13.61752)
( -10.0 2.68629 13.61752)
( -10.0 2.68748 13.61752)
( -10.0 2.68868 13.61752)
( -10.0 2.68987 13.61752)
( -10.0 2.69106 13.61752)
( -10.0 2.69226 13.61752)
( -10.0 2.69345 13.61752)
( -10.0 2.69464 13.61752)
( -10.0 2.69584 13.61752)
( -10.0 2.69703 13.61752)
( -10.0 2.69823 13.61752)
( -10.0 2.69942 13.61752)
( -10.0 2.70061 13.61752)
( -10.0 2.70181 13.61752)
( -10.0 2.703 13.61752)
( -10.0 2.70419 13.61752)
( -10.0 2.70539 13.61752)
( -10.0 2.70658 13.61752)
( -10.0 2.70777 13.61752)
( -10.0 2.70897 13.61752)
( -10.0 2.71016 13.61752)
( -10.0 2.71135 13.61752)
( -10.0 2.71255 13.61752)
( -10.0 2.71374 13.61752)
( -10.0 2.71494 13.61752)
( -10.0 2.71613 13.61752)
( -10.0 2.71732 13.61752)
( -10.0 2.71852 13.61752)
( -10.0 2.71971 13.61752)
( -10.0 2.7209 13.61752)
( -10.0 2.7221 13.61752)
( -10.0 2.72329 13.61752)
( -10.0 2.72448 13.61752)
( -10.0 2.72568 13.61752)
( -10.0 2.72687 13.61752)
( -10.0 2.72806 13.61752)
( -10.0 2.72926 13.61752)
( -10.0 2.73045 13.61752)
( -10.0 2.73165 13.61752)
( -10.0 2.73284 13.61752)
( -10.0 2.73403 13.61752)
( -10.0 2.73523 13.61752)
( -10.0 2.73642 13.61752)
( -10.0 2.73761 13.61752)
( -10.0 2.73881 13.61752)
( -10.0 2.74 13.61752)
( -10.0 2.74119 13.61752)
( -10.0 2.74239 13.61752)
( -10.0 2.74358 13.61752)
( -10.0 2.74477 13.61752)
( -10.0 2.74597 13.61752)
( -10.0 2.74716 13.61752)
( -10.0 2.74835 13.61752)
( -10.0 2.74955 13.61752)
( -10.0 2.75074 13.61752)
( -10.0 2.75194 13.61752)
( -10.0 2.75313 13.61752)
( -10.0 2.75432 13.61752)
( -10.0 2.75552 13.61752)
( -10.0 2.75671 13.61752)
( -10.0 2.7579 13.61752)
( -10.0 2.7591 13.61752)
( -10.0 2.76029 13.61752)
( -10.0 2.76148 13.61752)
( -10.0 2.76268 13.61752)
( -10.0 2.76387 13.61752)
( -10.0 2.76506 13.61752)
( -10.0 2.76626 13.61752)
( -10.0 2.76745 13.61752)
( -10.0 2.76865 13.61752)
( -10.0 2.76984 13.61752)
( -10.0 2.77103 13.61752)
( -10.0 2.77223 13.61752)
( -10.0 2.77342 13.61752)
( -10.0 2.77461 13.61752)
( -10.0 2.77581 13.61752)
( -10.0 2.777 13.61752)
( -10.0 2.77819 13.61752)
( -10.0 2.77939 13.61752)
( -10.0 2.78058 13.61752)
( -10.0 2.78177 13.61752)
( -10.0 2.78297 13.61752)
( -10.0 2.78416 13.61752)
( -10.0 2.78536 13.61752)
( -10.0 2.78655 13.61752)
( -10.0 2.78774 13.61752)
( -10.0 2.78894 13.61752)
( -10.0 2.79013 13.61752)
( -10.0 2.79132 13.61752)
( -10.0 2.79252 13.61752)
( -10.0 2.79371 13.61752)
( -10.0 2.7949 13.61752)
( -10.0 2.7961 13.61752)
( -10.0 2.79729 13.61752)
( -10.0 2.79848 13.61752)
( -10.0 2.79968 13.61752)
( -10.0 2.80087 13.61752)
( -10.0 2.80206 13.61752)
( -10.0 2.80326 13.61752)
( -10.0 2.80445 13.61752)
( -10.0 2.80565 13.61752)
( -10.0 2.80684 13.61752)
( -10.0 2.80803 13.61752)
( -10.0 2.80923 13.61752)
( -10.0 2.81042 13.61752)
( -10.0 2.81161 13.61752)
( -10.0 2.81281 13.61752)
( -10.0 2.814 13.61752)
( -10.0 2.81519 13.61752)
( -10.0 2.81639 13.61752)
( -10.0 2.81758 13.61752)
( -10.0 2.81877 13.61752)
( -10.0 2.81997 13.61752)
( -10.0 2.82116 13.61752)
( -10.0 2.82236 13.61752)
( -10.0 2.82355 13.61752)
( -10.0 2.82474 13.61752)
( -10.0 2.82594 13.61752)
( -10.0 2.82713 13.61752)
( -10.0 2.82832 13.61752)
( -10.0 2.82952 13.61752)
( -10.0 2.83071 13.61752)
( -10.0 2.8319 13.61752)
( -10.0 2.8331 13.61752)
( -10.0 2.83429 13.61752)
( -10.0 2.83548 13.61752)
( -10.0 2.83668 13.61752)
( -10.0 2.83787 13.61752)
( -10.0 2.83907 13.61752)
( -10.0 2.84026 13.61752)
( -10.0 2.84145 13.61752)
( -10.0 2.84265 13.61752)
( -10.0 2.84384 13.61752)
( -10.0 2.84503 13.61752)
( -10.0 2.84623 13.61752)
( -10.0 2.84742 13.61752)
( -10.0 2.84861 13.61752)
( -10.0 2.84981 13.61752)
( -10.0 2.851 13.61752)
( -10.0 2.85219 13.61752)
( -10.0 2.85339 13.61752)
( -10.0 2.85458 13.61752)
( -10.0 2.85578 13.61752)
( -10.0 2.85697 13.61752)
( -10.0 2.85816 13.61752)
( -10.0 2.85936 13.61752)
( -10.0 2.86055 13.61752)
( -10.0 2.86174 13.61752)
( -10.0 2.86294 13.61752)
( -10.0 2.86413 13.61752)
( -10.0 2.86532 13.61752)
( -10.0 2.86652 13.61752)
( -10.0 2.86771 13.61752)
( -10.0 2.8689 13.61752)
( -10.0 2.8701 13.61752)
( -10.0 2.87129 13.61752)
( -10.0 2.87248 13.61752)
( -10.0 2.87368 13.61752)
( -10.0 2.60632 13.61871)
( -10.0 2.60752 13.61871)
( -10.0 2.60871 13.61871)
( -10.0 2.6099 13.61871)
( -10.0 2.6111 13.61871)
( -10.0 2.61229 13.61871)
( -10.0 2.61348 13.61871)
( -10.0 2.61468 13.61871)
( -10.0 2.61587 13.61871)
( -10.0 2.61706 13.61871)
( -10.0 2.61826 13.61871)
( -10.0 2.61945 13.61871)
( -10.0 2.62064 13.61871)
( -10.0 2.62184 13.61871)
( -10.0 2.62303 13.61871)
( -10.0 2.62422 13.61871)
( -10.0 2.62542 13.61871)
( -10.0 2.62661 13.61871)
( -10.0 2.62781 13.61871)
( -10.0 2.629 13.61871)
( -10.0 2.63019 13.61871)
( -10.0 2.63139 13.61871)
( -10.0 2.63258 13.61871)
( -10.0 2.63377 13.61871)
( -10.0 2.63497 13.61871)
( -10.0 2.63616 13.61871)
( -10.0 2.63735 13.61871)
( -10.0 2.63855 13.61871)
( -10.0 2.63974 13.61871)
( -10.0 2.64093 13.61871)
( -10.0 2.64213 13.61871)
( -10.0 2.64332 13.61871)
( -10.0 2.64452 13.61871)
( -10.0 2.64571 13.61871)
( -10.0 2.6469 13.61871)
( -10.0 2.6481 13.61871)
( -10.0 2.64929 13.61871)
( -10.0 2.65048 13.61871)
( -10.0 2.65168 13.61871)
( -10.0 2.65287 13.61871)
( -10.0 2.65406 13.61871)
( -10.0 2.65526 13.61871)
( -10.0 2.65645 13.61871)
( -10.0 2.65764 13.61871)
( -10.0 2.65884 13.61871)
( -10.0 2.66003 13.61871)
( -10.0 2.66123 13.61871)
( -10.0 2.66242 13.61871)
( -10.0 2.66361 13.61871)
( -10.0 2.66481 13.61871)
( -10.0 2.666 13.61871)
( -10.0 2.66719 13.61871)
( -10.0 2.66839 13.61871)
( -10.0 2.66958 13.61871)
( -10.0 2.67077 13.61871)
( -10.0 2.67197 13.61871)
( -10.0 2.67316 13.61871)
( -10.0 2.67435 13.61871)
( -10.0 2.67555 13.61871)
( -10.0 2.67674 13.61871)
( -10.0 2.67794 13.61871)
( -10.0 2.67913 13.61871)
( -10.0 2.68032 13.61871)
( -10.0 2.68152 13.61871)
( -10.0 2.68271 13.61871)
( -10.0 2.6839 13.61871)
( -10.0 2.6851 13.61871)
( -10.0 2.68629 13.61871)
( -10.0 2.68748 13.61871)
( -10.0 2.68868 13.61871)
( -10.0 2.68987 13.61871)
( -10.0 2.69106 13.61871)
( -10.0 2.69226 13.61871)
( -10.0 2.69345 13.61871)
( -10.0 2.69464 13.61871)
( -10.0 2.69584 13.61871)
( -10.0 2.69703 13.61871)
( -10.0 2.69823 13.61871)
( -10.0 2.69942 13.61871)
( -10.0 2.70061 13.61871)
( -10.0 2.70181 13.61871)
( -10.0 2.703 13.61871)
( -10.0 2.70419 13.61871)
( -10.0 2.70539 13.61871)
( -10.0 2.70658 13.61871)
( -10.0 2.70777 13.61871)
( -10.0 2.70897 13.61871)
( -10.0 2.71016 13.61871)
( -10.0 2.71135 13.61871)
( -10.0 2.71255 13.61871)
( -10.0 2.71374 13.61871)
( -10.0 2.71494 13.61871)
( -10.0 2.71613 13.61871)
( -10.0 2.71732 13.61871)
( -10.0 2.71852 13.61871)
( -10.0 2.71971 13.61871)
( -10.0 2.7209 13.61871)
( -10.0 2.7221 13.61871)
( -10.0 2.72329 13.61871)
( -10.0 2.72448 13.61871)
( -10.0 2.72568 13.61871)
( -10.0 2.72687 13.61871)
( -10.0 2.72806 13.61871)
( -10.0 2.72926 13.61871)
( -10.0 2.73045 13.61871)
( -10.0 2.73165 13.61871)
( -10.0 2.73284 13.61871)
( -10.0 2.73403 13.61871)
( -10.0 2.73523 13.61871)
( -10.0 2.73642 13.61871)
( -10.0 2.73761 13.61871)
( -10.0 2.73881 13.61871)
( -10.0 2.74 13.61871)
( -10.0 2.74119 13.61871)
( -10.0 2.74239 13.61871)
( -10.0 2.74358 13.61871)
( -10.0 2.74477 13.61871)
( -10.0 2.74597 13.61871)
( -10.0 2.74716 13.61871)
( -10.0 2.74835 13.61871)
( -10.0 2.74955 13.61871)
( -10.0 2.75074 13.61871)
( -10.0 2.75194 13.61871)
( -10.0 2.75313 13.61871)
( -10.0 2.75432 13.61871)
( -10.0 2.75552 13.61871)
( -10.0 2.75671 13.61871)
( -10.0 2.7579 13.61871)
( -10.0 2.7591 13.61871)
( -10.0 2.76029 13.61871)
( -10.0 2.76148 13.61871)
( -10.0 2.76268 13.61871)
( -10.0 2.76387 13.61871)
( -10.0 2.76506 13.61871)
( -10.0 2.76626 13.61871)
( -10.0 2.76745 13.61871)
( -10.0 2.76865 13.61871)
( -10.0 2.76984 13.61871)
( -10.0 2.77103 13.61871)
( -10.0 2.77223 13.61871)
( -10.0 2.77342 13.61871)
( -10.0 2.77461 13.61871)
( -10.0 2.77581 13.61871)
( -10.0 2.777 13.61871)
( -10.0 2.77819 13.61871)
( -10.0 2.77939 13.61871)
( -10.0 2.78058 13.61871)
( -10.0 2.78177 13.61871)
( -10.0 2.78297 13.61871)
( -10.0 2.78416 13.61871)
( -10.0 2.78536 13.61871)
( -10.0 2.78655 13.61871)
( -10.0 2.78774 13.61871)
( -10.0 2.78894 13.61871)
( -10.0 2.79013 13.61871)
( -10.0 2.79132 13.61871)
( -10.0 2.79252 13.61871)
( -10.0 2.79371 13.61871)
( -10.0 2.7949 13.61871)
( -10.0 2.7961 13.61871)
( -10.0 2.79729 13.61871)
( -10.0 2.79848 13.61871)
( -10.0 2.79968 13.61871)
( -10.0 2.80087 13.61871)
( -10.0 2.80206 13.61871)
( -10.0 2.80326 13.61871)
( -10.0 2.80445 13.61871)
( -10.0 2.80565 13.61871)
( -10.0 2.80684 13.61871)
( -10.0 2.80803 13.61871)
( -10.0 2.80923 13.61871)
( -10.0 2.81042 13.61871)
( -10.0 2.81161 13.61871)
( -10.0 2.81281 13.61871)
( -10.0 2.814 13.61871)
( -10.0 2.81519 13.61871)
( -10.0 2.81639 13.61871)
( -10.0 2.81758 13.61871)
( -10.0 2.81877 13.61871)
( -10.0 2.81997 13.61871)
( -10.0 2.82116 13.61871)
( -10.0 2.82236 13.61871)
( -10.0 2.82355 13.61871)
( -10.0 2.82474 13.61871)
( -10.0 2.82594 13.61871)
( -10.0 2.82713 13.61871)
( -10.0 2.82832 13.61871)
( -10.0 2.82952 13.61871)
( -10.0 2.83071 13.61871)
( -10.0 2.8319 13.61871)
( -10.0 2.8331 13.61871)
( -10.0 2.83429 13.61871)
( -10.0 2.83548 13.61871)
( -10.0 2.83668 13.61871)
( -10.0 2.83787 13.61871)
( -10.0 2.83907 13.61871)
( -10.0 2.84026 13.61871)
( -10.0 2.84145 13.61871)
( -10.0 2.84265 13.61871)
( -10.0 2.84384 13.61871)
( -10.0 2.84503 13.61871)
( -10.0 2.84623 13.61871)
( -10.0 2.84742 13.61871)
( -10.0 2.84861 13.61871)
( -10.0 2.84981 13.61871)
( -10.0 2.851 13.61871)
( -10.0 2.85219 13.61871)
( -10.0 2.85339 13.61871)
( -10.0 2.85458 13.61871)
( -10.0 2.85578 13.61871)
( -10.0 2.85697 13.61871)
( -10.0 2.85816 13.61871)
( -10.0 2.85936 13.61871)
( -10.0 2.86055 13.61871)
( -10.0 2.86174 13.61871)
( -10.0 2.86294 13.61871)
( -10.0 2.86413 13.61871)
( -10.0 2.86532 13.61871)
( -10.0 2.86652 13.61871)
( -10.0 2.86771 13.61871)
( -10.0 2.8689 13.61871)
( -10.0 2.8701 13.61871)
( -10.0 2.87129 13.61871)
( -10.0 2.87248 13.61871)
( -10.0 2.87368 13.61871)
( -10.0 2.60632 13.6199)
( -10.0 2.60752 13.6199)
( -10.0 2.60871 13.6199)
( -10.0 2.6099 13.6199)
( -10.0 2.6111 13.6199)
( -10.0 2.61229 13.6199)
( -10.0 2.61348 13.6199)
( -10.0 2.61468 13.6199)
( -10.0 2.61587 13.6199)
( -10.0 2.61706 13.6199)
( -10.0 2.61826 13.6199)
( -10.0 2.61945 13.6199)
( -10.0 2.62064 13.6199)
( -10.0 2.62184 13.6199)
( -10.0 2.62303 13.6199)
( -10.0 2.62422 13.6199)
( -10.0 2.62542 13.6199)
( -10.0 2.62661 13.6199)
( -10.0 2.62781 13.6199)
( -10.0 2.629 13.6199)
( -10.0 2.63019 13.6199)
( -10.0 2.63139 13.6199)
( -10.0 2.63258 13.6199)
( -10.0 2.63377 13.6199)
( -10.0 2.63497 13.6199)
( -10.0 2.63616 13.6199)
( -10.0 2.63735 13.6199)
( -10.0 2.63855 13.6199)
( -10.0 2.63974 13.6199)
( -10.0 2.64093 13.6199)
( -10.0 2.64213 13.6199)
( -10.0 2.64332 13.6199)
( -10.0 2.64452 13.6199)
( -10.0 2.64571 13.6199)
( -10.0 2.6469 13.6199)
( -10.0 2.6481 13.6199)
( -10.0 2.64929 13.6199)
( -10.0 2.65048 13.6199)
( -10.0 2.65168 13.6199)
( -10.0 2.65287 13.6199)
( -10.0 2.65406 13.6199)
( -10.0 2.65526 13.6199)
( -10.0 2.65645 13.6199)
( -10.0 2.65764 13.6199)
( -10.0 2.65884 13.6199)
( -10.0 2.66003 13.6199)
( -10.0 2.66123 13.6199)
( -10.0 2.66242 13.6199)
( -10.0 2.66361 13.6199)
( -10.0 2.66481 13.6199)
( -10.0 2.666 13.6199)
( -10.0 2.66719 13.6199)
( -10.0 2.66839 13.6199)
( -10.0 2.66958 13.6199)
( -10.0 2.67077 13.6199)
( -10.0 2.67197 13.6199)
( -10.0 2.67316 13.6199)
( -10.0 2.67435 13.6199)
( -10.0 2.67555 13.6199)
( -10.0 2.67674 13.6199)
( -10.0 2.67794 13.6199)
( -10.0 2.67913 13.6199)
( -10.0 2.68032 13.6199)
( -10.0 2.68152 13.6199)
( -10.0 2.68271 13.6199)
( -10.0 2.6839 13.6199)
( -10.0 2.6851 13.6199)
( -10.0 2.68629 13.6199)
( -10.0 2.68748 13.6199)
( -10.0 2.68868 13.6199)
( -10.0 2.68987 13.6199)
( -10.0 2.69106 13.6199)
( -10.0 2.69226 13.6199)
( -10.0 2.69345 13.6199)
( -10.0 2.69464 13.6199)
( -10.0 2.69584 13.6199)
( -10.0 2.69703 13.6199)
( -10.0 2.69823 13.6199)
( -10.0 2.69942 13.6199)
( -10.0 2.70061 13.6199)
( -10.0 2.70181 13.6199)
( -10.0 2.703 13.6199)
( -10.0 2.70419 13.6199)
( -10.0 2.70539 13.6199)
( -10.0 2.70658 13.6199)
( -10.0 2.70777 13.6199)
( -10.0 2.70897 13.6199)
( -10.0 2.71016 13.6199)
( -10.0 2.71135 13.6199)
( -10.0 2.71255 13.6199)
( -10.0 2.71374 13.6199)
( -10.0 2.71494 13.6199)
( -10.0 2.71613 13.6199)
( -10.0 2.71732 13.6199)
( -10.0 2.71852 13.6199)
( -10.0 2.71971 13.6199)
( -10.0 2.7209 13.6199)
( -10.0 2.7221 13.6199)
( -10.0 2.72329 13.6199)
( -10.0 2.72448 13.6199)
( -10.0 2.72568 13.6199)
( -10.0 2.72687 13.6199)
( -10.0 2.72806 13.6199)
( -10.0 2.72926 13.6199)
( -10.0 2.73045 13.6199)
( -10.0 2.73165 13.6199)
( -10.0 2.73284 13.6199)
( -10.0 2.73403 13.6199)
( -10.0 2.73523 13.6199)
( -10.0 2.73642 13.6199)
( -10.0 2.73761 13.6199)
( -10.0 2.73881 13.6199)
( -10.0 2.74 13.6199)
( -10.0 2.74119 13.6199)
( -10.0 2.74239 13.6199)
( -10.0 2.74358 13.6199)
( -10.0 2.74477 13.6199)
( -10.0 2.74597 13.6199)
( -10.0 2.74716 13.6199)
( -10.0 2.74835 13.6199)
( -10.0 2.74955 13.6199)
( -10.0 2.75074 13.6199)
( -10.0 2.75194 13.6199)
( -10.0 2.75313 13.6199)
( -10.0 2.75432 13.6199)
( -10.0 2.75552 13.6199)
( -10.0 2.75671 13.6199)
( -10.0 2.7579 13.6199)
( -10.0 2.7591 13.6199)
( -10.0 2.76029 13.6199)
( -10.0 2.76148 13.6199)
( -10.0 2.76268 13.6199)
( -10.0 2.76387 13.6199)
( -10.0 2.76506 13.6199)
( -10.0 2.76626 13.6199)
( -10.0 2.76745 13.6199)
( -10.0 2.76865 13.6199)
( -10.0 2.76984 13.6199)
( -10.0 2.77103 13.6199)
( -10.0 2.77223 13.6199)
( -10.0 2.77342 13.6199)
( -10.0 2.77461 13.6199)
( -10.0 2.77581 13.6199)
( -10.0 2.777 13.6199)
( -10.0 2.77819 13.6199)
( -10.0 2.77939 13.6199)
( -10.0 2.78058 13.6199)
( -10.0 2.78177 13.6199)
( -10.0 2.78297 13.6199)
( -10.0 2.78416 13.6199)
( -10.0 2.78536 13.6199)
( -10.0 2.78655 13.6199)
( -10.0 2.78774 13.6199)
( -10.0 2.78894 13.6199)
( -10.0 2.79013 13.6199)
( -10.0 2.79132 13.6199)
( -10.0 2.79252 13.6199)
( -10.0 2.79371 13.6199)
( -10.0 2.7949 13.6199)
( -10.0 2.7961 13.6199)
( -10.0 2.79729 13.6199)
( -10.0 2.79848 13.6199)
( -10.0 2.79968 13.6199)
( -10.0 2.80087 13.6199)
( -10.0 2.80206 13.6199)
( -10.0 2.80326 13.6199)
( -10.0 2.80445 13.6199)
( -10.0 2.80565 13.6199)
( -10.0 2.80684 13.6199)
( -10.0 2.80803 13.6199)
( -10.0 2.80923 13.6199)
( -10.0 2.81042 13.6199)
( -10.0 2.81161 13.6199)
( -10.0 2.81281 13.6199)
( -10.0 2.814 13.6199)
( -10.0 2.81519 13.6199)
( -10.0 2.81639 13.6199)
( -10.0 2.81758 13.6199)
( -10.0 2.81877 13.6199)
( -10.0 2.81997 13.6199)
( -10.0 2.82116 13.6199)
( -10.0 2.82236 13.6199)
( -10.0 2.82355 13.6199)
( -10.0 2.82474 13.6199)
( -10.0 2.82594 13.6199)
( -10.0 2.82713 13.6199)
( -10.0 2.82832 13.6199)
( -10.0 2.82952 13.6199)
( -10.0 2.83071 13.6199)
( -10.0 2.8319 13.6199)
( -10.0 2.8331 13.6199)
( -10.0 2.83429 13.6199)
( -10.0 2.83548 13.6199)
( -10.0 2.83668 13.6199)
( -10.0 2.83787 13.6199)
( -10.0 2.83907 13.6199)
( -10.0 2.84026 13.6199)
( -10.0 2.84145 13.6199)
( -10.0 2.84265 13.6199)
( -10.0 2.84384 13.6199)
( -10.0 2.84503 13.6199)
( -10.0 2.84623 13.6199)
( -10.0 2.84742 13.6199)
( -10.0 2.84861 13.6199)
( -10.0 2.84981 13.6199)
( -10.0 2.851 13.6199)
( -10.0 2.85219 13.6199)
( -10.0 2.85339 13.6199)
( -10.0 2.85458 13.6199)
( -10.0 2.85578 13.6199)
( -10.0 2.85697 13.6199)
( -10.0 2.85816 13.6199)
( -10.0 2.85936 13.6199)
( -10.0 2.86055 13.6199)
( -10.0 2.86174 13.6199)
( -10.0 2.86294 13.6199)
( -10.0 2.86413 13.6199)
( -10.0 2.86532 13.6199)
( -10.0 2.86652 13.6199)
( -10.0 2.86771 13.6199)
( -10.0 2.8689 13.6199)
( -10.0 2.8701 13.6199)
( -10.0 2.87129 13.6199)
( -10.0 2.87248 13.6199)
( -10.0 2.87368 13.6199)
( -10.0 2.60632 13.6211)
( -10.0 2.60752 13.6211)
( -10.0 2.60871 13.6211)
( -10.0 2.6099 13.6211)
( -10.0 2.6111 13.6211)
( -10.0 2.61229 13.6211)
( -10.0 2.61348 13.6211)
( -10.0 2.61468 13.6211)
( -10.0 2.61587 13.6211)
( -10.0 2.61706 13.6211)
( -10.0 2.61826 13.6211)
( -10.0 2.61945 13.6211)
( -10.0 2.62064 13.6211)
( -10.0 2.62184 13.6211)
( -10.0 2.62303 13.6211)
( -10.0 2.62422 13.6211)
( -10.0 2.62542 13.6211)
( -10.0 2.62661 13.6211)
( -10.0 2.62781 13.6211)
( -10.0 2.629 13.6211)
( -10.0 2.63019 13.6211)
( -10.0 2.63139 13.6211)
( -10.0 2.63258 13.6211)
( -10.0 2.63377 13.6211)
( -10.0 2.63497 13.6211)
( -10.0 2.63616 13.6211)
( -10.0 2.63735 13.6211)
( -10.0 2.63855 13.6211)
( -10.0 2.63974 13.6211)
( -10.0 2.64093 13.6211)
( -10.0 2.64213 13.6211)
( -10.0 2.64332 13.6211)
( -10.0 2.64452 13.6211)
( -10.0 2.64571 13.6211)
( -10.0 2.6469 13.6211)
( -10.0 2.6481 13.6211)
( -10.0 2.64929 13.6211)
( -10.0 2.65048 13.6211)
( -10.0 2.65168 13.6211)
( -10.0 2.65287 13.6211)
( -10.0 2.65406 13.6211)
( -10.0 2.65526 13.6211)
( -10.0 2.65645 13.6211)
( -10.0 2.65764 13.6211)
( -10.0 2.65884 13.6211)
( -10.0 2.66003 13.6211)
( -10.0 2.66123 13.6211)
( -10.0 2.66242 13.6211)
( -10.0 2.66361 13.6211)
( -10.0 2.66481 13.6211)
( -10.0 2.666 13.6211)
( -10.0 2.66719 13.6211)
( -10.0 2.66839 13.6211)
( -10.0 2.66958 13.6211)
( -10.0 2.67077 13.6211)
( -10.0 2.67197 13.6211)
( -10.0 2.67316 13.6211)
( -10.0 2.67435 13.6211)
( -10.0 2.67555 13.6211)
( -10.0 2.67674 13.6211)
( -10.0 2.67794 13.6211)
( -10.0 2.67913 13.6211)
( -10.0 2.68032 13.6211)
( -10.0 2.68152 13.6211)
( -10.0 2.68271 13.6211)
( -10.0 2.6839 13.6211)
( -10.0 2.6851 13.6211)
( -10.0 2.68629 13.6211)
( -10.0 2.68748 13.6211)
( -10.0 2.68868 13.6211)
( -10.0 2.68987 13.6211)
( -10.0 2.69106 13.6211)
( -10.0 2.69226 13.6211)
( -10.0 2.69345 13.6211)
( -10.0 2.69464 13.6211)
( -10.0 2.69584 13.6211)
( -10.0 2.69703 13.6211)
( -10.0 2.69823 13.6211)
( -10.0 2.69942 13.6211)
( -10.0 2.70061 13.6211)
( -10.0 2.70181 13.6211)
( -10.0 2.703 13.6211)
( -10.0 2.70419 13.6211)
( -10.0 2.70539 13.6211)
( -10.0 2.70658 13.6211)
( -10.0 2.70777 13.6211)
( -10.0 2.70897 13.6211)
( -10.0 2.71016 13.6211)
( -10.0 2.71135 13.6211)
( -10.0 2.71255 13.6211)
( -10.0 2.71374 13.6211)
( -10.0 2.71494 13.6211)
( -10.0 2.71613 13.6211)
( -10.0 2.71732 13.6211)
( -10.0 2.71852 13.6211)
( -10.0 2.71971 13.6211)
( -10.0 2.7209 13.6211)
( -10.0 2.7221 13.6211)
( -10.0 2.72329 13.6211)
( -10.0 2.72448 13.6211)
( -10.0 2.72568 13.6211)
( -10.0 2.72687 13.6211)
( -10.0 2.72806 13.6211)
( -10.0 2.72926 13.6211)
( -10.0 2.73045 13.6211)
( -10.0 2.73165 13.6211)
( -10.0 2.73284 13.6211)
( -10.0 2.73403 13.6211)
( -10.0 2.73523 13.6211)
( -10.0 2.73642 13.6211)
( -10.0 2.73761 13.6211)
( -10.0 2.73881 13.6211)
( -10.0 2.74 13.6211)
( -10.0 2.74119 13.6211)
( -10.0 2.74239 13.6211)
( -10.0 2.74358 13.6211)
( -10.0 2.74477 13.6211)
( -10.0 2.74597 13.6211)
( -10.0 2.74716 13.6211)
( -10.0 2.74835 13.6211)
( -10.0 2.74955 13.6211)
( -10.0 2.75074 13.6211)
( -10.0 2.75194 13.6211)
( -10.0 2.75313 13.6211)
( -10.0 2.75432 13.6211)
( -10.0 2.75552 13.6211)
( -10.0 2.75671 13.6211)
( -10.0 2.7579 13.6211)
( -10.0 2.7591 13.6211)
( -10.0 2.76029 13.6211)
( -10.0 2.76148 13.6211)
( -10.0 2.76268 13.6211)
( -10.0 2.76387 13.6211)
( -10.0 2.76506 13.6211)
( -10.0 2.76626 13.6211)
( -10.0 2.76745 13.6211)
( -10.0 2.76865 13.6211)
( -10.0 2.76984 13.6211)
( -10.0 2.77103 13.6211)
( -10.0 2.77223 13.6211)
( -10.0 2.77342 13.6211)
( -10.0 2.77461 13.6211)
( -10.0 2.77581 13.6211)
( -10.0 2.777 13.6211)
( -10.0 2.77819 13.6211)
( -10.0 2.77939 13.6211)
( -10.0 2.78058 13.6211)
( -10.0 2.78177 13.6211)
( -10.0 2.78297 13.6211)
( -10.0 2.78416 13.6211)
( -10.0 2.78536 13.6211)
( -10.0 2.78655 13.6211)
( -10.0 2.78774 13.6211)
( -10.0 2.78894 13.6211)
( -10.0 2.79013 13.6211)
( -10.0 2.79132 13.6211)
( -10.0 2.79252 13.6211)
( -10.0 2.79371 13.6211)
( -10.0 2.7949 13.6211)
( -10.0 2.7961 13.6211)
( -10.0 2.79729 13.6211)
( -10.0 2.79848 13.6211)
( -10.0 2.79968 13.6211)
( -10.0 2.80087 13.6211)
( -10.0 2.80206 13.6211)
( -10.0 2.80326 13.6211)
( -10.0 2.80445 13.6211)
( -10.0 2.80565 13.6211)
( -10.0 2.80684 13.6211)
( -10.0 2.80803 13.6211)
( -10.0 2.80923 13.6211)
( -10.0 2.81042 13.6211)
( -10.0 2.81161 13.6211)
( -10.0 2.81281 13.6211)
( -10.0 2.814 13.6211)
( -10.0 2.81519 13.6211)
( -10.0 2.81639 13.6211)
( -10.0 2.81758 13.6211)
( -10.0 2.81877 13.6211)
( -10.0 2.81997 13.6211)
( -10.0 2.82116 13.6211)
( -10.0 2.82236 13.6211)
( -10.0 2.82355 13.6211)
( -10.0 2.82474 13.6211)
( -10.0 2.82594 13.6211)
( -10.0 2.82713 13.6211)
( -10.0 2.82832 13.6211)
( -10.0 2.82952 13.6211)
( -10.0 2.83071 13.6211)
( -10.0 2.8319 13.6211)
( -10.0 2.8331 13.6211)
( -10.0 2.83429 13.6211)
( -10.0 2.83548 13.6211)
( -10.0 2.83668 13.6211)
( -10.0 2.83787 13.6211)
( -10.0 2.83907 13.6211)
( -10.0 2.84026 13.6211)
( -10.0 2.84145 13.6211)
( -10.0 2.84265 13.6211)
( -10.0 2.84384 13.6211)
( -10.0 2.84503 13.6211)
( -10.0 2.84623 13.6211)
( -10.0 2.84742 13.6211)
( -10.0 2.84861 13.6211)
( -10.0 2.84981 13.6211)
( -10.0 2.851 13.6211)
( -10.0 2.85219 13.6211)
( -10.0 2.85339 13.6211)
( -10.0 2.85458 13.6211)
( -10.0 2.85578 13.6211)
( -10.0 2.85697 13.6211)
( -10.0 2.85816 13.6211)
( -10.0 2.85936 13.6211)
( -10.0 2.86055 13.6211)
( -10.0 2.86174 13.6211)
( -10.0 2.86294 13.6211)
( -10.0 2.86413 13.6211)
( -10.0 2.86532 13.6211)
( -10.0 2.86652 13.6211)
( -10.0 2.86771 13.6211)
( -10.0 2.8689 13.6211)
( -10.0 2.8701 13.6211)
( -10.0 2.87129 13.6211)
( -10.0 2.87248 13.6211)
( -10.0 2.87368 13.6211)
( -10.0 2.60632 13.62229)
( -10.0 2.60752 13.62229)
( -10.0 2.60871 13.62229)
( -10.0 2.6099 13.62229)
( -10.0 2.6111 13.62229)
( -10.0 2.61229 13.62229)
( -10.0 2.61348 13.62229)
( -10.0 2.61468 13.62229)
( -10.0 2.61587 13.62229)
( -10.0 2.61706 13.62229)
( -10.0 2.61826 13.62229)
( -10.0 2.61945 13.62229)
( -10.0 2.62064 13.62229)
( -10.0 2.62184 13.62229)
( -10.0 2.62303 13.62229)
( -10.0 2.62422 13.62229)
( -10.0 2.62542 13.62229)
( -10.0 2.62661 13.62229)
( -10.0 2.62781 13.62229)
( -10.0 2.629 13.62229)
( -10.0 2.63019 13.62229)
( -10.0 2.63139 13.62229)
( -10.0 2.63258 13.62229)
( -10.0 2.63377 13.62229)
( -10.0 2.63497 13.62229)
( -10.0 2.63616 13.62229)
( -10.0 2.63735 13.62229)
( -10.0 2.63855 13.62229)
( -10.0 2.63974 13.62229)
( -10.0 2.64093 13.62229)
( -10.0 2.64213 13.62229)
( -10.0 2.64332 13.62229)
( -10.0 2.64452 13.62229)
( -10.0 2.64571 13.62229)
( -10.0 2.6469 13.62229)
( -10.0 2.6481 13.62229)
( -10.0 2.64929 13.62229)
( -10.0 2.65048 13.62229)
( -10.0 2.65168 13.62229)
( -10.0 2.65287 13.62229)
( -10.0 2.65406 13.62229)
( -10.0 2.65526 13.62229)
( -10.0 2.65645 13.62229)
( -10.0 2.65764 13.62229)
( -10.0 2.65884 13.62229)